+ 0.1 0 1 tcp 40 ------- 2 0.0 2.0 0 0
- 0.1 0 1 tcp 40 ------- 2 0.0 2.0 0 0
r 0.11016 0 1 tcp 40 ------- 2 0.0 2.0 0 0
+ 0.11016 1 2 tcp 40 ------- 2 0.0 2.0 0 0
- 0.11016 1 2 tcp 40 ------- 2 0.0 2.0 0 0
r 0.12048 1 2 tcp 40 ------- 2 0.0 2.0 0 0
+ 0.12048 2 1 ack 40 ------- 2 2.0 0.0 0 1
- 0.12048 2 1 ack 40 ------- 2 2.0 0.0 0 1
r 0.1308 2 1 ack 40 ------- 2 2.0 0.0 0 1
+ 0.1308 1 0 ack 40 ------- 2 2.0 0.0 0 1
- 0.1308 1 0 ack 40 ------- 2 2.0 0.0 0 1
r 0.14096 1 0 ack 40 ------- 2 2.0 0.0 0 1
+ 0.14096 0 1 tcp 1040 ------- 2 0.0 2.0 1 2
- 0.14096 0 1 tcp 1040 ------- 2 0.0 2.0 1 2
+ 0.14096 0 1 tcp 1040 ------- 2 0.0 2.0 2 3
- 0.14512 0 1 tcp 1040 ------- 2 0.0 2.0 2 3
r 0.15512 0 1 tcp 1040 ------- 2 0.0 2.0 1 2
+ 0.15512 1 2 tcp 1040 ------- 2 0.0 2.0 1 2
- 0.15512 1 2 tcp 1040 ------- 2 0.0 2.0 1 2
r 0.15928 0 1 tcp 1040 ------- 2 0.0 2.0 2 3
+ 0.15928 1 2 tcp 1040 ------- 2 0.0 2.0 2 3
- 0.16344 1 2 tcp 1040 ------- 2 0.0 2.0 2 3
r 0.17344 1 2 tcp 1040 ------- 2 0.0 2.0 1 2
+ 0.17344 2 1 ack 40 ------- 2 2.0 0.0 1 4
- 0.17344 2 1 ack 40 ------- 2 2.0 0.0 1 4
r 0.18176 1 2 tcp 1040 ------- 2 0.0 2.0 2 3
+ 0.18176 2 1 ack 40 ------- 2 2.0 0.0 2 5
- 0.18176 2 1 ack 40 ------- 2 2.0 0.0 2 5
r 0.18376 2 1 ack 40 ------- 2 2.0 0.0 1 4
+ 0.18376 1 0 ack 40 ------- 2 2.0 0.0 1 4
- 0.18376 1 0 ack 40 ------- 2 2.0 0.0 1 4
r 0.19208 2 1 ack 40 ------- 2 2.0 0.0 2 5
+ 0.19208 1 0 ack 40 ------- 2 2.0 0.0 2 5
- 0.19208 1 0 ack 40 ------- 2 2.0 0.0 2 5
r 0.19392 1 0 ack 40 ------- 2 2.0 0.0 1 4
+ 0.19392 0 1 tcp 1040 ------- 2 0.0 2.0 3 6
- 0.19392 0 1 tcp 1040 ------- 2 0.0 2.0 3 6
+ 0.19392 0 1 tcp 1040 ------- 2 0.0 2.0 4 7
- 0.19808 0 1 tcp 1040 ------- 2 0.0 2.0 4 7
r 0.20224 1 0 ack 40 ------- 2 2.0 0.0 2 5
+ 0.20224 0 1 tcp 1040 ------- 2 0.0 2.0 5 8
+ 0.20224 0 1 tcp 1040 ------- 2 0.0 2.0 6 9
- 0.20224 0 1 tcp 1040 ------- 2 0.0 2.0 5 8
- 0.2064 0 1 tcp 1040 ------- 2 0.0 2.0 6 9
r 0.20808 0 1 tcp 1040 ------- 2 0.0 2.0 3 6
+ 0.20808 1 2 tcp 1040 ------- 2 0.0 2.0 3 6
- 0.20808 1 2 tcp 1040 ------- 2 0.0 2.0 3 6
r 0.21224 0 1 tcp 1040 ------- 2 0.0 2.0 4 7
+ 0.21224 1 2 tcp 1040 ------- 2 0.0 2.0 4 7
r 0.2164 0 1 tcp 1040 ------- 2 0.0 2.0 5 8
+ 0.2164 1 2 tcp 1040 ------- 2 0.0 2.0 5 8
- 0.2164 1 2 tcp 1040 ------- 2 0.0 2.0 4 7
r 0.22056 0 1 tcp 1040 ------- 2 0.0 2.0 6 9
+ 0.22056 1 2 tcp 1040 ------- 2 0.0 2.0 6 9
- 0.22472 1 2 tcp 1040 ------- 2 0.0 2.0 5 8
r 0.2264 1 2 tcp 1040 ------- 2 0.0 2.0 3 6
+ 0.2264 2 1 ack 40 ------- 2 2.0 0.0 3 10
- 0.2264 2 1 ack 40 ------- 2 2.0 0.0 3 10
- 0.23304 1 2 tcp 1040 ------- 2 0.0 2.0 6 9
r 0.23472 1 2 tcp 1040 ------- 2 0.0 2.0 4 7
+ 0.23472 2 1 ack 40 ------- 2 2.0 0.0 4 11
- 0.23472 2 1 ack 40 ------- 2 2.0 0.0 4 11
r 0.23672 2 1 ack 40 ------- 2 2.0 0.0 3 10
+ 0.23672 1 0 ack 40 ------- 2 2.0 0.0 3 10
- 0.23672 1 0 ack 40 ------- 2 2.0 0.0 3 10
r 0.24304 1 2 tcp 1040 ------- 2 0.0 2.0 5 8
+ 0.24304 2 1 ack 40 ------- 2 2.0 0.0 5 12
- 0.24304 2 1 ack 40 ------- 2 2.0 0.0 5 12
r 0.24504 2 1 ack 40 ------- 2 2.0 0.0 4 11
+ 0.24504 1 0 ack 40 ------- 2 2.0 0.0 4 11
- 0.24504 1 0 ack 40 ------- 2 2.0 0.0 4 11
r 0.24688 1 0 ack 40 ------- 2 2.0 0.0 3 10
+ 0.24688 0 1 tcp 1040 ------- 2 0.0 2.0 7 13
- 0.24688 0 1 tcp 1040 ------- 2 0.0 2.0 7 13
+ 0.24688 0 1 tcp 1040 ------- 2 0.0 2.0 8 14
- 0.25104 0 1 tcp 1040 ------- 2 0.0 2.0 8 14
r 0.25136 1 2 tcp 1040 ------- 2 0.0 2.0 6 9
+ 0.25136 2 1 ack 40 ------- 2 2.0 0.0 6 15
- 0.25136 2 1 ack 40 ------- 2 2.0 0.0 6 15
r 0.25336 2 1 ack 40 ------- 2 2.0 0.0 5 12
+ 0.25336 1 0 ack 40 ------- 2 2.0 0.0 5 12
- 0.25336 1 0 ack 40 ------- 2 2.0 0.0 5 12
r 0.2552 1 0 ack 40 ------- 2 2.0 0.0 4 11
+ 0.2552 0 1 tcp 1040 ------- 2 0.0 2.0 9 16
+ 0.2552 0 1 tcp 1040 ------- 2 0.0 2.0 10 17
- 0.2552 0 1 tcp 1040 ------- 2 0.0 2.0 9 16
- 0.25936 0 1 tcp 1040 ------- 2 0.0 2.0 10 17
r 0.26104 0 1 tcp 1040 ------- 2 0.0 2.0 7 13
+ 0.26104 1 2 tcp 1040 ------- 2 0.0 2.0 7 13
- 0.26104 1 2 tcp 1040 ------- 2 0.0 2.0 7 13
r 0.26168 2 1 ack 40 ------- 2 2.0 0.0 6 15
+ 0.26168 1 0 ack 40 ------- 2 2.0 0.0 6 15
- 0.26168 1 0 ack 40 ------- 2 2.0 0.0 6 15
r 0.26352 1 0 ack 40 ------- 2 2.0 0.0 5 12
+ 0.26352 0 1 tcp 1040 ------- 2 0.0 2.0 11 18
+ 0.26352 0 1 tcp 1040 ------- 2 0.0 2.0 12 19
- 0.26352 0 1 tcp 1040 ------- 2 0.0 2.0 11 18
r 0.2652 0 1 tcp 1040 ------- 2 0.0 2.0 8 14
+ 0.2652 1 2 tcp 1040 ------- 2 0.0 2.0 8 14
- 0.26768 0 1 tcp 1040 ------- 2 0.0 2.0 12 19
- 0.26936 1 2 tcp 1040 ------- 2 0.0 2.0 8 14
r 0.26936 0 1 tcp 1040 ------- 2 0.0 2.0 9 16
+ 0.26936 1 2 tcp 1040 ------- 2 0.0 2.0 9 16
r 0.27184 1 0 ack 40 ------- 2 2.0 0.0 6 15
+ 0.27184 0 1 tcp 1040 ------- 2 0.0 2.0 13 20
+ 0.27184 0 1 tcp 1040 ------- 2 0.0 2.0 14 21
- 0.27184 0 1 tcp 1040 ------- 2 0.0 2.0 13 20
r 0.27352 0 1 tcp 1040 ------- 2 0.0 2.0 10 17
+ 0.27352 1 2 tcp 1040 ------- 2 0.0 2.0 10 17
- 0.276 0 1 tcp 1040 ------- 2 0.0 2.0 14 21
- 0.27768 1 2 tcp 1040 ------- 2 0.0 2.0 9 16
r 0.27768 0 1 tcp 1040 ------- 2 0.0 2.0 11 18
+ 0.27768 1 2 tcp 1040 ------- 2 0.0 2.0 11 18
r 0.27936 1 2 tcp 1040 ------- 2 0.0 2.0 7 13
+ 0.27936 2 1 ack 40 ------- 2 2.0 0.0 7 22
- 0.27936 2 1 ack 40 ------- 2 2.0 0.0 7 22
r 0.28184 0 1 tcp 1040 ------- 2 0.0 2.0 12 19
+ 0.28184 1 2 tcp 1040 ------- 2 0.0 2.0 12 19
- 0.286 1 2 tcp 1040 ------- 2 0.0 2.0 10 17
r 0.286 0 1 tcp 1040 ------- 2 0.0 2.0 13 20
+ 0.286 1 2 tcp 1040 ------- 2 0.0 2.0 13 20
r 0.28768 1 2 tcp 1040 ------- 2 0.0 2.0 8 14
+ 0.28768 2 1 ack 40 ------- 2 2.0 0.0 8 23
- 0.28768 2 1 ack 40 ------- 2 2.0 0.0 8 23
r 0.28968 2 1 ack 40 ------- 2 2.0 0.0 7 22
+ 0.28968 1 0 ack 40 ------- 2 2.0 0.0 7 22
- 0.28968 1 0 ack 40 ------- 2 2.0 0.0 7 22
r 0.29016 0 1 tcp 1040 ------- 2 0.0 2.0 14 21
+ 0.29016 1 2 tcp 1040 ------- 2 0.0 2.0 14 21
- 0.29432 1 2 tcp 1040 ------- 2 0.0 2.0 11 18
r 0.296 1 2 tcp 1040 ------- 2 0.0 2.0 9 16
+ 0.296 2 1 ack 40 ------- 2 2.0 0.0 9 24
- 0.296 2 1 ack 40 ------- 2 2.0 0.0 9 24
r 0.298 2 1 ack 40 ------- 2 2.0 0.0 8 23
+ 0.298 1 0 ack 40 ------- 2 2.0 0.0 8 23
- 0.298 1 0 ack 40 ------- 2 2.0 0.0 8 23
r 0.29984 1 0 ack 40 ------- 2 2.0 0.0 7 22
+ 0.29984 0 1 tcp 1040 ------- 2 0.0 2.0 15 25
- 0.29984 0 1 tcp 1040 ------- 2 0.0 2.0 15 25
+ 0.29984 0 1 tcp 1040 ------- 2 0.0 2.0 16 26
- 0.30264 1 2 tcp 1040 ------- 2 0.0 2.0 12 19
- 0.304 0 1 tcp 1040 ------- 2 0.0 2.0 16 26
r 0.30432 1 2 tcp 1040 ------- 2 0.0 2.0 10 17
+ 0.30432 2 1 ack 40 ------- 2 2.0 0.0 10 27
- 0.30432 2 1 ack 40 ------- 2 2.0 0.0 10 27
r 0.30632 2 1 ack 40 ------- 2 2.0 0.0 9 24
+ 0.30632 1 0 ack 40 ------- 2 2.0 0.0 9 24
- 0.30632 1 0 ack 40 ------- 2 2.0 0.0 9 24
r 0.30816 1 0 ack 40 ------- 2 2.0 0.0 8 23
+ 0.30816 0 1 tcp 1040 ------- 2 0.0 2.0 17 28
+ 0.30816 0 1 tcp 1040 ------- 2 0.0 2.0 18 29
- 0.30816 0 1 tcp 1040 ------- 2 0.0 2.0 17 28
- 0.31096 1 2 tcp 1040 ------- 2 0.0 2.0 13 20
- 0.31232 0 1 tcp 1040 ------- 2 0.0 2.0 18 29
r 0.31264 1 2 tcp 1040 ------- 2 0.0 2.0 11 18
+ 0.31264 2 1 ack 40 ------- 2 2.0 0.0 11 30
- 0.31264 2 1 ack 40 ------- 2 2.0 0.0 11 30
r 0.314 0 1 tcp 1040 ------- 2 0.0 2.0 15 25
+ 0.314 1 2 tcp 1040 ------- 2 0.0 2.0 15 25
r 0.31464 2 1 ack 40 ------- 2 2.0 0.0 10 27
+ 0.31464 1 0 ack 40 ------- 2 2.0 0.0 10 27
- 0.31464 1 0 ack 40 ------- 2 2.0 0.0 10 27
r 0.31648 1 0 ack 40 ------- 2 2.0 0.0 9 24
+ 0.31648 0 1 tcp 1040 ------- 2 0.0 2.0 19 31
+ 0.31648 0 1 tcp 1040 ------- 2 0.0 2.0 20 32
- 0.31648 0 1 tcp 1040 ------- 2 0.0 2.0 19 31
r 0.31816 0 1 tcp 1040 ------- 2 0.0 2.0 16 26
+ 0.31816 1 2 tcp 1040 ------- 2 0.0 2.0 16 26
- 0.31928 1 2 tcp 1040 ------- 2 0.0 2.0 14 21
- 0.32064 0 1 tcp 1040 ------- 2 0.0 2.0 20 32
r 0.32096 1 2 tcp 1040 ------- 2 0.0 2.0 12 19
+ 0.32096 2 1 ack 40 ------- 2 2.0 0.0 12 33
- 0.32096 2 1 ack 40 ------- 2 2.0 0.0 12 33
r 0.32232 0 1 tcp 1040 ------- 2 0.0 2.0 17 28
+ 0.32232 1 2 tcp 1040 ------- 2 0.0 2.0 17 28
r 0.32296 2 1 ack 40 ------- 2 2.0 0.0 11 30
+ 0.32296 1 0 ack 40 ------- 2 2.0 0.0 11 30
- 0.32296 1 0 ack 40 ------- 2 2.0 0.0 11 30
r 0.3248 1 0 ack 40 ------- 2 2.0 0.0 10 27
+ 0.3248 0 1 tcp 1040 ------- 2 0.0 2.0 21 34
+ 0.3248 0 1 tcp 1040 ------- 2 0.0 2.0 22 35
- 0.3248 0 1 tcp 1040 ------- 2 0.0 2.0 21 34
r 0.32648 0 1 tcp 1040 ------- 2 0.0 2.0 18 29
+ 0.32648 1 2 tcp 1040 ------- 2 0.0 2.0 18 29
- 0.3276 1 2 tcp 1040 ------- 2 0.0 2.0 15 25
- 0.32896 0 1 tcp 1040 ------- 2 0.0 2.0 22 35
r 0.32928 1 2 tcp 1040 ------- 2 0.0 2.0 13 20
+ 0.32928 2 1 ack 40 ------- 2 2.0 0.0 13 36
- 0.32928 2 1 ack 40 ------- 2 2.0 0.0 13 36
r 0.33064 0 1 tcp 1040 ------- 2 0.0 2.0 19 31
+ 0.33064 1 2 tcp 1040 ------- 2 0.0 2.0 19 31
r 0.33128 2 1 ack 40 ------- 2 2.0 0.0 12 33
+ 0.33128 1 0 ack 40 ------- 2 2.0 0.0 12 33
- 0.33128 1 0 ack 40 ------- 2 2.0 0.0 12 33
r 0.33312 1 0 ack 40 ------- 2 2.0 0.0 11 30
+ 0.33312 0 1 tcp 1040 ------- 2 0.0 2.0 23 37
+ 0.33312 0 1 tcp 1040 ------- 2 0.0 2.0 24 38
- 0.33312 0 1 tcp 1040 ------- 2 0.0 2.0 23 37
r 0.3348 0 1 tcp 1040 ------- 2 0.0 2.0 20 32
+ 0.3348 1 2 tcp 1040 ------- 2 0.0 2.0 20 32
- 0.33592 1 2 tcp 1040 ------- 2 0.0 2.0 16 26
- 0.33728 0 1 tcp 1040 ------- 2 0.0 2.0 24 38
r 0.3376 1 2 tcp 1040 ------- 2 0.0 2.0 14 21
+ 0.3376 2 1 ack 40 ------- 2 2.0 0.0 14 39
- 0.3376 2 1 ack 40 ------- 2 2.0 0.0 14 39
r 0.33896 0 1 tcp 1040 ------- 2 0.0 2.0 21 34
+ 0.33896 1 2 tcp 1040 ------- 2 0.0 2.0 21 34
r 0.3396 2 1 ack 40 ------- 2 2.0 0.0 13 36
+ 0.3396 1 0 ack 40 ------- 2 2.0 0.0 13 36
- 0.3396 1 0 ack 40 ------- 2 2.0 0.0 13 36
r 0.34144 1 0 ack 40 ------- 2 2.0 0.0 12 33
+ 0.34144 0 1 tcp 1040 ------- 2 0.0 2.0 25 40
+ 0.34144 0 1 tcp 1040 ------- 2 0.0 2.0 26 41
- 0.34144 0 1 tcp 1040 ------- 2 0.0 2.0 25 40
r 0.34312 0 1 tcp 1040 ------- 2 0.0 2.0 22 35
+ 0.34312 1 2 tcp 1040 ------- 2 0.0 2.0 22 35
- 0.34424 1 2 tcp 1040 ------- 2 0.0 2.0 17 28
- 0.3456 0 1 tcp 1040 ------- 2 0.0 2.0 26 41
r 0.34592 1 2 tcp 1040 ------- 2 0.0 2.0 15 25
+ 0.34592 2 1 ack 40 ------- 2 2.0 0.0 15 42
- 0.34592 2 1 ack 40 ------- 2 2.0 0.0 15 42
r 0.34728 0 1 tcp 1040 ------- 2 0.0 2.0 23 37
+ 0.34728 1 2 tcp 1040 ------- 2 0.0 2.0 23 37
r 0.34792 2 1 ack 40 ------- 2 2.0 0.0 14 39
+ 0.34792 1 0 ack 40 ------- 2 2.0 0.0 14 39
- 0.34792 1 0 ack 40 ------- 2 2.0 0.0 14 39
r 0.34976 1 0 ack 40 ------- 2 2.0 0.0 13 36
+ 0.34976 0 1 tcp 1040 ------- 2 0.0 2.0 27 43
+ 0.34976 0 1 tcp 1040 ------- 2 0.0 2.0 28 44
- 0.34976 0 1 tcp 1040 ------- 2 0.0 2.0 27 43
r 0.35144 0 1 tcp 1040 ------- 2 0.0 2.0 24 38
+ 0.35144 1 2 tcp 1040 ------- 2 0.0 2.0 24 38
d 0.35144 1 2 tcp 1040 ------- 2 0.0 2.0 24 38
- 0.35256 1 2 tcp 1040 ------- 2 0.0 2.0 18 29
- 0.35392 0 1 tcp 1040 ------- 2 0.0 2.0 28 44
r 0.35424 1 2 tcp 1040 ------- 2 0.0 2.0 16 26
+ 0.35424 2 1 ack 40 ------- 2 2.0 0.0 16 45
- 0.35424 2 1 ack 40 ------- 2 2.0 0.0 16 45
r 0.3556 0 1 tcp 1040 ------- 2 0.0 2.0 25 40
+ 0.3556 1 2 tcp 1040 ------- 2 0.0 2.0 25 40
r 0.35624 2 1 ack 40 ------- 2 2.0 0.0 15 42
+ 0.35624 1 0 ack 40 ------- 2 2.0 0.0 15 42
- 0.35624 1 0 ack 40 ------- 2 2.0 0.0 15 42
r 0.35808 1 0 ack 40 ------- 2 2.0 0.0 14 39
+ 0.35808 0 1 tcp 1040 ------- 2 0.0 2.0 29 46
+ 0.35808 0 1 tcp 1040 ------- 2 0.0 2.0 30 47
- 0.35808 0 1 tcp 1040 ------- 2 0.0 2.0 29 46
r 0.35976 0 1 tcp 1040 ------- 2 0.0 2.0 26 41
+ 0.35976 1 2 tcp 1040 ------- 2 0.0 2.0 26 41
d 0.35976 1 2 tcp 1040 ------- 2 0.0 2.0 26 41
- 0.36088 1 2 tcp 1040 ------- 2 0.0 2.0 19 31
- 0.36224 0 1 tcp 1040 ------- 2 0.0 2.0 30 47
r 0.36256 1 2 tcp 1040 ------- 2 0.0 2.0 17 28
+ 0.36256 2 1 ack 40 ------- 2 2.0 0.0 17 48
- 0.36256 2 1 ack 40 ------- 2 2.0 0.0 17 48
r 0.36392 0 1 tcp 1040 ------- 2 0.0 2.0 27 43
+ 0.36392 1 2 tcp 1040 ------- 2 0.0 2.0 27 43
r 0.36456 2 1 ack 40 ------- 2 2.0 0.0 16 45
+ 0.36456 1 0 ack 40 ------- 2 2.0 0.0 16 45
- 0.36456 1 0 ack 40 ------- 2 2.0 0.0 16 45
r 0.3664 1 0 ack 40 ------- 2 2.0 0.0 15 42
+ 0.3664 0 1 tcp 1040 ------- 2 0.0 2.0 31 49
+ 0.3664 0 1 tcp 1040 ------- 2 0.0 2.0 32 50
- 0.3664 0 1 tcp 1040 ------- 2 0.0 2.0 31 49
r 0.36808 0 1 tcp 1040 ------- 2 0.0 2.0 28 44
+ 0.36808 1 2 tcp 1040 ------- 2 0.0 2.0 28 44
d 0.36808 1 2 tcp 1040 ------- 2 0.0 2.0 28 44
- 0.3692 1 2 tcp 1040 ------- 2 0.0 2.0 20 32
- 0.37056 0 1 tcp 1040 ------- 2 0.0 2.0 32 50
r 0.37088 1 2 tcp 1040 ------- 2 0.0 2.0 18 29
+ 0.37088 2 1 ack 40 ------- 2 2.0 0.0 18 51
- 0.37088 2 1 ack 40 ------- 2 2.0 0.0 18 51
r 0.37224 0 1 tcp 1040 ------- 2 0.0 2.0 29 46
+ 0.37224 1 2 tcp 1040 ------- 2 0.0 2.0 29 46
r 0.37288 2 1 ack 40 ------- 2 2.0 0.0 17 48
+ 0.37288 1 0 ack 40 ------- 2 2.0 0.0 17 48
- 0.37288 1 0 ack 40 ------- 2 2.0 0.0 17 48
r 0.37472 1 0 ack 40 ------- 2 2.0 0.0 16 45
+ 0.37472 0 1 tcp 1040 ------- 2 0.0 2.0 33 52
+ 0.37472 0 1 tcp 1040 ------- 2 0.0 2.0 34 53
- 0.37472 0 1 tcp 1040 ------- 2 0.0 2.0 33 52
r 0.3764 0 1 tcp 1040 ------- 2 0.0 2.0 30 47
+ 0.3764 1 2 tcp 1040 ------- 2 0.0 2.0 30 47
d 0.3764 1 2 tcp 1040 ------- 2 0.0 2.0 30 47
- 0.37752 1 2 tcp 1040 ------- 2 0.0 2.0 21 34
- 0.37888 0 1 tcp 1040 ------- 2 0.0 2.0 34 53
r 0.3792 1 2 tcp 1040 ------- 2 0.0 2.0 19 31
+ 0.3792 2 1 ack 40 ------- 2 2.0 0.0 19 54
- 0.3792 2 1 ack 40 ------- 2 2.0 0.0 19 54
r 0.38056 0 1 tcp 1040 ------- 2 0.0 2.0 31 49
+ 0.38056 1 2 tcp 1040 ------- 2 0.0 2.0 31 49
r 0.3812 2 1 ack 40 ------- 2 2.0 0.0 18 51
+ 0.3812 1 0 ack 40 ------- 2 2.0 0.0 18 51
- 0.3812 1 0 ack 40 ------- 2 2.0 0.0 18 51
r 0.38304 1 0 ack 40 ------- 2 2.0 0.0 17 48
+ 0.38304 0 1 tcp 1040 ------- 2 0.0 2.0 35 55
+ 0.38304 0 1 tcp 1040 ------- 2 0.0 2.0 36 56
- 0.38304 0 1 tcp 1040 ------- 2 0.0 2.0 35 55
r 0.38472 0 1 tcp 1040 ------- 2 0.0 2.0 32 50
+ 0.38472 1 2 tcp 1040 ------- 2 0.0 2.0 32 50
d 0.38472 1 2 tcp 1040 ------- 2 0.0 2.0 32 50
- 0.38584 1 2 tcp 1040 ------- 2 0.0 2.0 22 35
- 0.3872 0 1 tcp 1040 ------- 2 0.0 2.0 36 56
r 0.38752 1 2 tcp 1040 ------- 2 0.0 2.0 20 32
+ 0.38752 2 1 ack 40 ------- 2 2.0 0.0 20 57
- 0.38752 2 1 ack 40 ------- 2 2.0 0.0 20 57
r 0.38888 0 1 tcp 1040 ------- 2 0.0 2.0 33 52
+ 0.38888 1 2 tcp 1040 ------- 2 0.0 2.0 33 52
r 0.38952 2 1 ack 40 ------- 2 2.0 0.0 19 54
+ 0.38952 1 0 ack 40 ------- 2 2.0 0.0 19 54
- 0.38952 1 0 ack 40 ------- 2 2.0 0.0 19 54
r 0.39136 1 0 ack 40 ------- 2 2.0 0.0 18 51
+ 0.39136 0 1 tcp 1040 ------- 2 0.0 2.0 37 58
+ 0.39136 0 1 tcp 1040 ------- 2 0.0 2.0 38 59
- 0.39136 0 1 tcp 1040 ------- 2 0.0 2.0 37 58
r 0.39304 0 1 tcp 1040 ------- 2 0.0 2.0 34 53
+ 0.39304 1 2 tcp 1040 ------- 2 0.0 2.0 34 53
d 0.39304 1 2 tcp 1040 ------- 2 0.0 2.0 34 53
- 0.39416 1 2 tcp 1040 ------- 2 0.0 2.0 23 37
- 0.39552 0 1 tcp 1040 ------- 2 0.0 2.0 38 59
r 0.39584 1 2 tcp 1040 ------- 2 0.0 2.0 21 34
+ 0.39584 2 1 ack 40 ------- 2 2.0 0.0 21 60
- 0.39584 2 1 ack 40 ------- 2 2.0 0.0 21 60
r 0.3972 0 1 tcp 1040 ------- 2 0.0 2.0 35 55
+ 0.3972 1 2 tcp 1040 ------- 2 0.0 2.0 35 55
r 0.39784 2 1 ack 40 ------- 2 2.0 0.0 20 57
+ 0.39784 1 0 ack 40 ------- 2 2.0 0.0 20 57
- 0.39784 1 0 ack 40 ------- 2 2.0 0.0 20 57
r 0.39968 1 0 ack 40 ------- 2 2.0 0.0 19 54
+ 0.39968 0 1 tcp 1040 ------- 2 0.0 2.0 39 61
- 0.39968 0 1 tcp 1040 ------- 2 0.0 2.0 39 61
r 0.40136 0 1 tcp 1040 ------- 2 0.0 2.0 36 56
+ 0.40136 1 2 tcp 1040 ------- 2 0.0 2.0 36 56
d 0.40136 1 2 tcp 1040 ------- 2 0.0 2.0 36 56
- 0.40248 1 2 tcp 1040 ------- 2 0.0 2.0 25 40
r 0.40416 1 2 tcp 1040 ------- 2 0.0 2.0 22 35
+ 0.40416 2 1 ack 40 ------- 2 2.0 0.0 22 62
- 0.40416 2 1 ack 40 ------- 2 2.0 0.0 22 62
r 0.40552 0 1 tcp 1040 ------- 2 0.0 2.0 37 58
+ 0.40552 1 2 tcp 1040 ------- 2 0.0 2.0 37 58
r 0.40616 2 1 ack 40 ------- 2 2.0 0.0 21 60
+ 0.40616 1 0 ack 40 ------- 2 2.0 0.0 21 60
- 0.40616 1 0 ack 40 ------- 2 2.0 0.0 21 60
r 0.408 1 0 ack 40 ------- 2 2.0 0.0 20 57
+ 0.408 0 1 tcp 1040 ------- 2 0.0 2.0 40 63
- 0.408 0 1 tcp 1040 ------- 2 0.0 2.0 40 63
r 0.40968 0 1 tcp 1040 ------- 2 0.0 2.0 38 59
+ 0.40968 1 2 tcp 1040 ------- 2 0.0 2.0 38 59
d 0.40968 1 2 tcp 1040 ------- 2 0.0 2.0 38 59
- 0.4108 1 2 tcp 1040 ------- 2 0.0 2.0 27 43
r 0.41248 1 2 tcp 1040 ------- 2 0.0 2.0 23 37
+ 0.41248 2 1 ack 40 ------- 2 2.0 0.0 23 64
- 0.41248 2 1 ack 40 ------- 2 2.0 0.0 23 64
r 0.41384 0 1 tcp 1040 ------- 2 0.0 2.0 39 61
+ 0.41384 1 2 tcp 1040 ------- 2 0.0 2.0 39 61
r 0.41448 2 1 ack 40 ------- 2 2.0 0.0 22 62
+ 0.41448 1 0 ack 40 ------- 2 2.0 0.0 22 62
- 0.41448 1 0 ack 40 ------- 2 2.0 0.0 22 62
r 0.41632 1 0 ack 40 ------- 2 2.0 0.0 21 60
+ 0.41632 0 1 tcp 1040 ------- 2 0.0 2.0 41 65
- 0.41632 0 1 tcp 1040 ------- 2 0.0 2.0 41 65
- 0.41912 1 2 tcp 1040 ------- 2 0.0 2.0 29 46
r 0.4208 1 2 tcp 1040 ------- 2 0.0 2.0 25 40
+ 0.4208 2 1 ack 40 ------- 2 2.0 0.0 23 66
- 0.4208 2 1 ack 40 ------- 2 2.0 0.0 23 66
r 0.42216 0 1 tcp 1040 ------- 2 0.0 2.0 40 63
+ 0.42216 1 2 tcp 1040 ------- 2 0.0 2.0 40 63
r 0.4228 2 1 ack 40 ------- 2 2.0 0.0 23 64
+ 0.4228 1 0 ack 40 ------- 2 2.0 0.0 23 64
- 0.4228 1 0 ack 40 ------- 2 2.0 0.0 23 64
r 0.42464 1 0 ack 40 ------- 2 2.0 0.0 22 62
+ 0.42464 0 1 tcp 1040 ------- 2 0.0 2.0 42 67
- 0.42464 0 1 tcp 1040 ------- 2 0.0 2.0 42 67
- 0.42744 1 2 tcp 1040 ------- 2 0.0 2.0 31 49
r 0.42912 1 2 tcp 1040 ------- 2 0.0 2.0 27 43
+ 0.42912 2 1 ack 40 ------- 2 2.0 0.0 23 68
- 0.42912 2 1 ack 40 ------- 2 2.0 0.0 23 68
r 0.43048 0 1 tcp 1040 ------- 2 0.0 2.0 41 65
+ 0.43048 1 2 tcp 1040 ------- 2 0.0 2.0 41 65
r 0.43112 2 1 ack 40 ------- 2 2.0 0.0 23 66
+ 0.43112 1 0 ack 40 ------- 2 2.0 0.0 23 66
- 0.43112 1 0 ack 40 ------- 2 2.0 0.0 23 66
r 0.43296 1 0 ack 40 ------- 2 2.0 0.0 23 64
+ 0.43296 0 1 tcp 1040 ------- 2 0.0 2.0 43 69
- 0.43296 0 1 tcp 1040 ------- 2 0.0 2.0 43 69
- 0.43576 1 2 tcp 1040 ------- 2 0.0 2.0 33 52
r 0.43744 1 2 tcp 1040 ------- 2 0.0 2.0 29 46
+ 0.43744 2 1 ack 40 ------- 2 2.0 0.0 23 70
- 0.43744 2 1 ack 40 ------- 2 2.0 0.0 23 70
r 0.4388 0 1 tcp 1040 ------- 2 0.0 2.0 42 67
+ 0.4388 1 2 tcp 1040 ------- 2 0.0 2.0 42 67
r 0.43944 2 1 ack 40 ------- 2 2.0 0.0 23 68
+ 0.43944 1 0 ack 40 ------- 2 2.0 0.0 23 68
- 0.43944 1 0 ack 40 ------- 2 2.0 0.0 23 68
r 0.44128 1 0 ack 40 ------- 2 2.0 0.0 23 66
- 0.44408 1 2 tcp 1040 ------- 2 0.0 2.0 35 55
r 0.44576 1 2 tcp 1040 ------- 2 0.0 2.0 31 49
+ 0.44576 2 1 ack 40 ------- 2 2.0 0.0 23 71
- 0.44576 2 1 ack 40 ------- 2 2.0 0.0 23 71
r 0.44712 0 1 tcp 1040 ------- 2 0.0 2.0 43 69
+ 0.44712 1 2 tcp 1040 ------- 2 0.0 2.0 43 69
r 0.44776 2 1 ack 40 ------- 2 2.0 0.0 23 70
+ 0.44776 1 0 ack 40 ------- 2 2.0 0.0 23 70
- 0.44776 1 0 ack 40 ------- 2 2.0 0.0 23 70
r 0.4496 1 0 ack 40 ------- 2 2.0 0.0 23 68
- 0.4524 1 2 tcp 1040 ------- 2 0.0 2.0 37 58
r 0.45408 1 2 tcp 1040 ------- 2 0.0 2.0 33 52
+ 0.45408 2 1 ack 40 ------- 2 2.0 0.0 23 72
- 0.45408 2 1 ack 40 ------- 2 2.0 0.0 23 72
r 0.45608 2 1 ack 40 ------- 2 2.0 0.0 23 71
+ 0.45608 1 0 ack 40 ------- 2 2.0 0.0 23 71
- 0.45608 1 0 ack 40 ------- 2 2.0 0.0 23 71
r 0.45792 1 0 ack 40 ------- 2 2.0 0.0 23 70
+ 0.45792 0 1 tcp 1040 ---A--- 2 0.0 2.0 24 73
- 0.45792 0 1 tcp 1040 ---A--- 2 0.0 2.0 24 73
- 0.46072 1 2 tcp 1040 ------- 2 0.0 2.0 39 61
r 0.4624 1 2 tcp 1040 ------- 2 0.0 2.0 35 55
+ 0.4624 2 1 ack 40 ------- 2 2.0 0.0 23 74
- 0.4624 2 1 ack 40 ------- 2 2.0 0.0 23 74
r 0.4644 2 1 ack 40 ------- 2 2.0 0.0 23 72
+ 0.4644 1 0 ack 40 ------- 2 2.0 0.0 23 72
- 0.4644 1 0 ack 40 ------- 2 2.0 0.0 23 72
r 0.46624 1 0 ack 40 ------- 2 2.0 0.0 23 71
- 0.46904 1 2 tcp 1040 ------- 2 0.0 2.0 40 63
r 0.47072 1 2 tcp 1040 ------- 2 0.0 2.0 37 58
+ 0.47072 2 1 ack 40 ------- 2 2.0 0.0 23 75
- 0.47072 2 1 ack 40 ------- 2 2.0 0.0 23 75
r 0.47208 0 1 tcp 1040 ---A--- 2 0.0 2.0 24 73
+ 0.47208 1 2 tcp 1040 ---A--- 2 0.0 2.0 24 73
r 0.47272 2 1 ack 40 ------- 2 2.0 0.0 23 74
+ 0.47272 1 0 ack 40 ------- 2 2.0 0.0 23 74
- 0.47272 1 0 ack 40 ------- 2 2.0 0.0 23 74
r 0.47456 1 0 ack 40 ------- 2 2.0 0.0 23 72
- 0.47736 1 2 tcp 1040 ------- 2 0.0 2.0 41 65
r 0.47904 1 2 tcp 1040 ------- 2 0.0 2.0 39 61
+ 0.47904 2 1 ack 40 ------- 2 2.0 0.0 23 76
- 0.47904 2 1 ack 40 ------- 2 2.0 0.0 23 76
r 0.48104 2 1 ack 40 ------- 2 2.0 0.0 23 75
+ 0.48104 1 0 ack 40 ------- 2 2.0 0.0 23 75
- 0.48104 1 0 ack 40 ------- 2 2.0 0.0 23 75
r 0.48288 1 0 ack 40 ------- 2 2.0 0.0 23 74
- 0.48568 1 2 tcp 1040 ------- 2 0.0 2.0 42 67
r 0.48736 1 2 tcp 1040 ------- 2 0.0 2.0 40 63
+ 0.48736 2 1 ack 40 ------- 2 2.0 0.0 23 77
- 0.48736 2 1 ack 40 ------- 2 2.0 0.0 23 77
r 0.48936 2 1 ack 40 ------- 2 2.0 0.0 23 76
+ 0.48936 1 0 ack 40 ------- 2 2.0 0.0 23 76
- 0.48936 1 0 ack 40 ------- 2 2.0 0.0 23 76
r 0.4912 1 0 ack 40 ------- 2 2.0 0.0 23 75
- 0.494 1 2 tcp 1040 ------- 2 0.0 2.0 43 69
r 0.49568 1 2 tcp 1040 ------- 2 0.0 2.0 41 65
+ 0.49568 2 1 ack 40 ------- 2 2.0 0.0 23 78
- 0.49568 2 1 ack 40 ------- 2 2.0 0.0 23 78
r 0.49768 2 1 ack 40 ------- 2 2.0 0.0 23 77
+ 0.49768 1 0 ack 40 ------- 2 2.0 0.0 23 77
- 0.49768 1 0 ack 40 ------- 2 2.0 0.0 23 77
r 0.49952 1 0 ack 40 ------- 2 2.0 0.0 23 76
- 0.50232 1 2 tcp 1040 ---A--- 2 0.0 2.0 24 73
r 0.504 1 2 tcp 1040 ------- 2 0.0 2.0 42 67
+ 0.504 2 1 ack 40 ------- 2 2.0 0.0 23 79
- 0.504 2 1 ack 40 ------- 2 2.0 0.0 23 79
r 0.506 2 1 ack 40 ------- 2 2.0 0.0 23 78
+ 0.506 1 0 ack 40 ------- 2 2.0 0.0 23 78
- 0.506 1 0 ack 40 ------- 2 2.0 0.0 23 78
r 0.50784 1 0 ack 40 ------- 2 2.0 0.0 23 77
r 0.51232 1 2 tcp 1040 ------- 2 0.0 2.0 43 69
+ 0.51232 2 1 ack 40 ------- 2 2.0 0.0 23 80
- 0.51232 2 1 ack 40 ------- 2 2.0 0.0 23 80
r 0.51432 2 1 ack 40 ------- 2 2.0 0.0 23 79
+ 0.51432 1 0 ack 40 ------- 2 2.0 0.0 23 79
- 0.51432 1 0 ack 40 ------- 2 2.0 0.0 23 79
r 0.51616 1 0 ack 40 ------- 2 2.0 0.0 23 78
r 0.52064 1 2 tcp 1040 ---A--- 2 0.0 2.0 24 73
+ 0.52064 2 1 ack 40 ------- 2 2.0 0.0 25 81
- 0.52064 2 1 ack 40 ------- 2 2.0 0.0 25 81
r 0.52264 2 1 ack 40 ------- 2 2.0 0.0 23 80
+ 0.52264 1 0 ack 40 ------- 2 2.0 0.0 23 80
- 0.52264 1 0 ack 40 ------- 2 2.0 0.0 23 80
r 0.52448 1 0 ack 40 ------- 2 2.0 0.0 23 79
r 0.53096 2 1 ack 40 ------- 2 2.0 0.0 25 81
+ 0.53096 1 0 ack 40 ------- 2 2.0 0.0 25 81
- 0.53096 1 0 ack 40 ------- 2 2.0 0.0 25 81
r 0.5328 1 0 ack 40 ------- 2 2.0 0.0 23 80
r 0.54112 1 0 ack 40 ------- 2 2.0 0.0 25 81
+ 0.54112 0 1 tcp 1040 ------- 2 0.0 2.0 26 82
- 0.54112 0 1 tcp 1040 ------- 2 0.0 2.0 26 82
+ 0.54112 0 1 tcp 1040 ------- 2 0.0 2.0 27 83
- 0.54528 0 1 tcp 1040 ------- 2 0.0 2.0 27 83
r 0.55528 0 1 tcp 1040 ------- 2 0.0 2.0 26 82
+ 0.55528 1 2 tcp 1040 ------- 2 0.0 2.0 26 82
- 0.55528 1 2 tcp 1040 ------- 2 0.0 2.0 26 82
r 0.55944 0 1 tcp 1040 ------- 2 0.0 2.0 27 83
+ 0.55944 1 2 tcp 1040 ------- 2 0.0 2.0 27 83
- 0.5636 1 2 tcp 1040 ------- 2 0.0 2.0 27 83
r 0.5736 1 2 tcp 1040 ------- 2 0.0 2.0 26 82
+ 0.5736 2 1 ack 40 ------- 2 2.0 0.0 27 84
- 0.5736 2 1 ack 40 ------- 2 2.0 0.0 27 84
r 0.58192 1 2 tcp 1040 ------- 2 0.0 2.0 27 83
+ 0.58192 2 1 ack 40 ------- 2 2.0 0.0 27 85
- 0.58192 2 1 ack 40 ------- 2 2.0 0.0 27 85
r 0.58392 2 1 ack 40 ------- 2 2.0 0.0 27 84
+ 0.58392 1 0 ack 40 ------- 2 2.0 0.0 27 84
- 0.58392 1 0 ack 40 ------- 2 2.0 0.0 27 84
r 0.59224 2 1 ack 40 ------- 2 2.0 0.0 27 85
+ 0.59224 1 0 ack 40 ------- 2 2.0 0.0 27 85
- 0.59224 1 0 ack 40 ------- 2 2.0 0.0 27 85
r 0.59408 1 0 ack 40 ------- 2 2.0 0.0 27 84
+ 0.59408 0 1 tcp 1040 ------- 2 0.0 2.0 28 86
- 0.59408 0 1 tcp 1040 ------- 2 0.0 2.0 28 86
+ 0.59408 0 1 tcp 1040 ------- 2 0.0 2.0 29 87
+ 0.59408 0 1 tcp 1040 ------- 2 0.0 2.0 30 88
- 0.59824 0 1 tcp 1040 ------- 2 0.0 2.0 29 87
r 0.6024 1 0 ack 40 ------- 2 2.0 0.0 27 85
+ 0.6024 0 1 tcp 1040 ------- 2 0.0 2.0 31 89
- 0.6024 0 1 tcp 1040 ------- 2 0.0 2.0 30 88
- 0.60656 0 1 tcp 1040 ------- 2 0.0 2.0 31 89
r 0.60824 0 1 tcp 1040 ------- 2 0.0 2.0 28 86
+ 0.60824 1 2 tcp 1040 ------- 2 0.0 2.0 28 86
- 0.60824 1 2 tcp 1040 ------- 2 0.0 2.0 28 86
r 0.6124 0 1 tcp 1040 ------- 2 0.0 2.0 29 87
+ 0.6124 1 2 tcp 1040 ------- 2 0.0 2.0 29 87
- 0.61656 1 2 tcp 1040 ------- 2 0.0 2.0 29 87
r 0.61656 0 1 tcp 1040 ------- 2 0.0 2.0 30 88
+ 0.61656 1 2 tcp 1040 ------- 2 0.0 2.0 30 88
r 0.62072 0 1 tcp 1040 ------- 2 0.0 2.0 31 89
+ 0.62072 1 2 tcp 1040 ------- 2 0.0 2.0 31 89
- 0.62488 1 2 tcp 1040 ------- 2 0.0 2.0 30 88
r 0.62656 1 2 tcp 1040 ------- 2 0.0 2.0 28 86
+ 0.62656 2 1 ack 40 ------- 2 2.0 0.0 29 90
- 0.62656 2 1 ack 40 ------- 2 2.0 0.0 29 90
- 0.6332 1 2 tcp 1040 ------- 2 0.0 2.0 31 89
r 0.63488 1 2 tcp 1040 ------- 2 0.0 2.0 29 87
+ 0.63488 2 1 ack 40 ------- 2 2.0 0.0 29 91
- 0.63488 2 1 ack 40 ------- 2 2.0 0.0 29 91
r 0.63688 2 1 ack 40 ------- 2 2.0 0.0 29 90
+ 0.63688 1 0 ack 40 ------- 2 2.0 0.0 29 90
- 0.63688 1 0 ack 40 ------- 2 2.0 0.0 29 90
r 0.6432 1 2 tcp 1040 ------- 2 0.0 2.0 30 88
+ 0.6432 2 1 ack 40 ------- 2 2.0 0.0 31 92
- 0.6432 2 1 ack 40 ------- 2 2.0 0.0 31 92
r 0.6452 2 1 ack 40 ------- 2 2.0 0.0 29 91
+ 0.6452 1 0 ack 40 ------- 2 2.0 0.0 29 91
- 0.6452 1 0 ack 40 ------- 2 2.0 0.0 29 91
r 0.64704 1 0 ack 40 ------- 2 2.0 0.0 29 90
+ 0.64704 0 1 tcp 1040 ------- 2 0.0 2.0 32 93
- 0.64704 0 1 tcp 1040 ------- 2 0.0 2.0 32 93
+ 0.64704 0 1 tcp 1040 ------- 2 0.0 2.0 33 94
- 0.6512 0 1 tcp 1040 ------- 2 0.0 2.0 33 94
r 0.65152 1 2 tcp 1040 ------- 2 0.0 2.0 31 89
+ 0.65152 2 1 ack 40 ------- 2 2.0 0.0 31 95
- 0.65152 2 1 ack 40 ------- 2 2.0 0.0 31 95
r 0.65352 2 1 ack 40 ------- 2 2.0 0.0 31 92
+ 0.65352 1 0 ack 40 ------- 2 2.0 0.0 31 92
- 0.65352 1 0 ack 40 ------- 2 2.0 0.0 31 92
r 0.65536 1 0 ack 40 ------- 2 2.0 0.0 29 91
+ 0.65536 0 1 tcp 1040 ------- 2 0.0 2.0 34 96
- 0.65536 0 1 tcp 1040 ------- 2 0.0 2.0 34 96
r 0.6612 0 1 tcp 1040 ------- 2 0.0 2.0 32 93
+ 0.6612 1 2 tcp 1040 ------- 2 0.0 2.0 32 93
- 0.6612 1 2 tcp 1040 ------- 2 0.0 2.0 32 93
r 0.66184 2 1 ack 40 ------- 2 2.0 0.0 31 95
+ 0.66184 1 0 ack 40 ------- 2 2.0 0.0 31 95
- 0.66184 1 0 ack 40 ------- 2 2.0 0.0 31 95
r 0.66368 1 0 ack 40 ------- 2 2.0 0.0 31 92
+ 0.66368 0 1 tcp 1040 ------- 2 0.0 2.0 35 97
- 0.66368 0 1 tcp 1040 ------- 2 0.0 2.0 35 97
+ 0.66368 0 1 tcp 1040 ------- 2 0.0 2.0 36 98
r 0.66536 0 1 tcp 1040 ------- 2 0.0 2.0 33 94
+ 0.66536 1 2 tcp 1040 ------- 2 0.0 2.0 33 94
- 0.66784 0 1 tcp 1040 ------- 2 0.0 2.0 36 98
- 0.66952 1 2 tcp 1040 ------- 2 0.0 2.0 33 94
r 0.66952 0 1 tcp 1040 ------- 2 0.0 2.0 34 96
+ 0.66952 1 2 tcp 1040 ------- 2 0.0 2.0 34 96
r 0.672 1 0 ack 40 ------- 2 2.0 0.0 31 95
+ 0.672 0 1 tcp 1040 ------- 2 0.0 2.0 37 99
- 0.672 0 1 tcp 1040 ------- 2 0.0 2.0 37 99
r 0.67784 0 1 tcp 1040 ------- 2 0.0 2.0 35 97
+ 0.67784 1 2 tcp 1040 ------- 2 0.0 2.0 35 97
- 0.67784 1 2 tcp 1040 ------- 2 0.0 2.0 34 96
r 0.67952 1 2 tcp 1040 ------- 2 0.0 2.0 32 93
+ 0.67952 2 1 ack 40 ------- 2 2.0 0.0 33 100
- 0.67952 2 1 ack 40 ------- 2 2.0 0.0 33 100
r 0.682 0 1 tcp 1040 ------- 2 0.0 2.0 36 98
+ 0.682 1 2 tcp 1040 ------- 2 0.0 2.0 36 98
- 0.68616 1 2 tcp 1040 ------- 2 0.0 2.0 35 97
r 0.68616 0 1 tcp 1040 ------- 2 0.0 2.0 37 99
+ 0.68616 1 2 tcp 1040 ------- 2 0.0 2.0 37 99
r 0.68784 1 2 tcp 1040 ------- 2 0.0 2.0 33 94
+ 0.68784 2 1 ack 40 ------- 2 2.0 0.0 33 101
- 0.68784 2 1 ack 40 ------- 2 2.0 0.0 33 101
r 0.68984 2 1 ack 40 ------- 2 2.0 0.0 33 100
+ 0.68984 1 0 ack 40 ------- 2 2.0 0.0 33 100
- 0.68984 1 0 ack 40 ------- 2 2.0 0.0 33 100
- 0.69448 1 2 tcp 1040 ------- 2 0.0 2.0 36 98
r 0.69616 1 2 tcp 1040 ------- 2 0.0 2.0 34 96
+ 0.69616 2 1 ack 40 ------- 2 2.0 0.0 35 102
- 0.69616 2 1 ack 40 ------- 2 2.0 0.0 35 102
r 0.69816 2 1 ack 40 ------- 2 2.0 0.0 33 101
+ 0.69816 1 0 ack 40 ------- 2 2.0 0.0 33 101
- 0.69816 1 0 ack 40 ------- 2 2.0 0.0 33 101
r 0.7 1 0 ack 40 ------- 2 2.0 0.0 33 100
+ 0.7 0 1 tcp 1040 ------- 2 0.0 2.0 38 103
- 0.7 0 1 tcp 1040 ------- 2 0.0 2.0 38 103
+ 0.7 0 1 tcp 1040 ------- 2 0.0 2.0 39 104
- 0.7028 1 2 tcp 1040 ------- 2 0.0 2.0 37 99
- 0.70416 0 1 tcp 1040 ------- 2 0.0 2.0 39 104
r 0.70448 1 2 tcp 1040 ------- 2 0.0 2.0 35 97
+ 0.70448 2 1 ack 40 ------- 2 2.0 0.0 35 105
- 0.70448 2 1 ack 40 ------- 2 2.0 0.0 35 105
r 0.70648 2 1 ack 40 ------- 2 2.0 0.0 35 102
+ 0.70648 1 0 ack 40 ------- 2 2.0 0.0 35 102
- 0.70648 1 0 ack 40 ------- 2 2.0 0.0 35 102
r 0.70832 1 0 ack 40 ------- 2 2.0 0.0 33 101
+ 0.70832 0 1 tcp 1040 ------- 2 0.0 2.0 40 106
- 0.70832 0 1 tcp 1040 ------- 2 0.0 2.0 40 106
r 0.7128 1 2 tcp 1040 ------- 2 0.0 2.0 36 98
+ 0.7128 2 1 ack 40 ------- 2 2.0 0.0 37 107
- 0.7128 2 1 ack 40 ------- 2 2.0 0.0 37 107
r 0.71416 0 1 tcp 1040 ------- 2 0.0 2.0 38 103
+ 0.71416 1 2 tcp 1040 ------- 2 0.0 2.0 38 103
- 0.71416 1 2 tcp 1040 ------- 2 0.0 2.0 38 103
r 0.7148 2 1 ack 40 ------- 2 2.0 0.0 35 105
+ 0.7148 1 0 ack 40 ------- 2 2.0 0.0 35 105
- 0.7148 1 0 ack 40 ------- 2 2.0 0.0 35 105
r 0.71664 1 0 ack 40 ------- 2 2.0 0.0 35 102
+ 0.71664 0 1 tcp 1040 ------- 2 0.0 2.0 41 108
- 0.71664 0 1 tcp 1040 ------- 2 0.0 2.0 41 108
+ 0.71664 0 1 tcp 1040 ------- 2 0.0 2.0 42 109
r 0.71832 0 1 tcp 1040 ------- 2 0.0 2.0 39 104
+ 0.71832 1 2 tcp 1040 ------- 2 0.0 2.0 39 104
- 0.7208 0 1 tcp 1040 ------- 2 0.0 2.0 42 109
r 0.72112 1 2 tcp 1040 ------- 2 0.0 2.0 37 99
+ 0.72112 2 1 ack 40 ------- 2 2.0 0.0 37 110
- 0.72112 2 1 ack 40 ------- 2 2.0 0.0 37 110
- 0.72248 1 2 tcp 1040 ------- 2 0.0 2.0 39 104
r 0.72248 0 1 tcp 1040 ------- 2 0.0 2.0 40 106
+ 0.72248 1 2 tcp 1040 ------- 2 0.0 2.0 40 106
r 0.72312 2 1 ack 40 ------- 2 2.0 0.0 37 107
+ 0.72312 1 0 ack 40 ------- 2 2.0 0.0 37 107
- 0.72312 1 0 ack 40 ------- 2 2.0 0.0 37 107
r 0.72496 1 0 ack 40 ------- 2 2.0 0.0 35 105
+ 0.72496 0 1 tcp 1040 ------- 2 0.0 2.0 43 111
- 0.72496 0 1 tcp 1040 ------- 2 0.0 2.0 43 111
r 0.7308 0 1 tcp 1040 ------- 2 0.0 2.0 41 108
+ 0.7308 1 2 tcp 1040 ------- 2 0.0 2.0 41 108
- 0.7308 1 2 tcp 1040 ------- 2 0.0 2.0 40 106
r 0.73144 2 1 ack 40 ------- 2 2.0 0.0 37 110
+ 0.73144 1 0 ack 40 ------- 2 2.0 0.0 37 110
- 0.73144 1 0 ack 40 ------- 2 2.0 0.0 37 110
r 0.73248 1 2 tcp 1040 ------- 2 0.0 2.0 38 103
+ 0.73248 2 1 ack 40 ------- 2 2.0 0.0 43 112
- 0.73248 2 1 ack 40 ------- 2 2.0 0.0 43 112
r 0.73328 1 0 ack 40 ------- 2 2.0 0.0 37 107
+ 0.73328 0 1 tcp 1040 ------- 2 0.0 2.0 44 113
- 0.73328 0 1 tcp 1040 ------- 2 0.0 2.0 44 113
+ 0.73328 0 1 tcp 1040 ------- 2 0.0 2.0 45 114
r 0.73496 0 1 tcp 1040 ------- 2 0.0 2.0 42 109